 Gaussian 09, Revision A.02,
 Gaussian 09:  AM64L-G09RevA.02 11-Jun-2009

 ----------------------------------------------------------------------
 #p cis=(root=1,nstates=20,alltransitiondensities)/6-31G** density=rhoc
 i iop(9/33=1)
 ----------------------------------------------------------------------

 -------------
 LiCN 6-31G(d)
 -------------
 Symbolic Z-matrix:
 Charge =  0 Multiplicity = 1

                         Standard orientation:
 ---------------------------------------------------------------------
 Center     Atomic      Atomic             Coordinates (Angstroms)
 Number     Number       Type             X           Y           Z
 ---------------------------------------------------------------------
      1          3           0        0.000000    0.000000   -2.085506
      2          6           0        0.000000    0.000000   -0.136506
      3          7           0        0.000000    0.000000    1.010794
 ---------------------------------------------------------------------

 SCF Done:  E(RHF) =  -99.7724984446     A.U. after   10 cycles
 E2 =    -0.2836523389D+00 EUMP2 =    -0.10005615078354D+03

 Excitation energies and oscillator strengths:

 Excited state symmetry could not be determined.
 Excited State   1:      Singlet-?Sym    6.5020 eV  190.69 nm  f=0.0000  <S**2>=0.000
       7 -> 11        -0.35124
       7 -> 15        -0.22648
       7 -> 17        -0.26892
       8 -> 10         0.35124
       8 -> 14         0.22648
       8 -> 16         0.26892
 This state for optimization and/or second-order correction.
 Total Energy, E(CIS) =  -99.5335561249
 Copying the excited state density for this state as the 1-particle RhoCI density.
    CIS Density (Total):
                1             2             3             4             5
      1  0.201454D+01
      2 -0.674319D-01  0.583495D-01
      3  0.000000D+00  0.000000D+00  0.738801D-01
      4  0.000000D+00  0.000000D+00  0.000000D+00  0.738801D-01
      5 -0.804042D-01  0.687650D-01  0.000000D+00  0.000000D+00  0.832302D-01
      6 -0.436293D-02  0.905167D-02  0.000000D+00  0.000000D+00  0.135126D-01
      7  0.000000D+00  0.000000D+00  0.482164D-01  0.000000D+00  0.000000D+00
      8  0.000000D+00  0.000000D+00  0.000000D+00  0.482164D-01  0.000000D+00
      9  0.254230D-01 -0.149764D-01  0.000000D+00  0.000000D+00 -0.165959D-01
     10  0.227825D-01 -0.692771D-02  0.000000D+00  0.000000D+00 -0.800266D-02
     11  0.227825D-01 -0.692771D-02  0.000000D+00  0.000000D+00 -0.800266D-02
     12  0.991785D-04  0.929415D-02  0.000000D+00  0.000000D+00  0.117979D-01
     13  0.000000D+00  0.000000D+00  0.000000D+00  0.000000D+00  0.000000D+00
     14  0.000000D+00  0.000000D+00  0.889407D-02  0.000000D+00  0.000000D+00
     15  0.000000D+00  0.000000D+00  0.000000D+00  0.889407D-02  0.000000D+00
     16  0.302113D-01 -0.316468D-01  0.000000D+00  0.000000D+00 -0.451800D-01
     17 -0.578767D-01  0.718400D-01  0.000000D+00  0.000000D+00  0.917358D-01
     18  0.000000D+00  0.000000D+00  0.667372D-01  0.000000D+00  0.000000D+00
     19  0.000000D+00  0.000000D+00  0.000000D+00  0.667372D-01  0.000000D+00
     20  0.817869D-01 -0.140120D+00  0.000000D+00  0.000000D+00 -0.166423D+00
     21 -0.623519D-01  0.115331D+00  0.000000D+00  0.000000D+00  0.140381D+00
     22  0.000000D+00  0.000000D+00  0.813277D-01  0.000000D+00  0.000000D+00
     23  0.000000D+00  0.000000D+00  0.000000D+00  0.813277D-01  0.000000D+00
     24  0.351714D-01 -0.756979D-01  0.000000D+00  0.000000D+00 -0.943422D-01
     25 -0.191963D-02  0.223515D-02  0.000000D+00  0.000000D+00  0.225073D-02
     26 -0.191963D-02  0.223515D-02  0.000000D+00  0.000000D+00  0.225073D-02
     27  0.241827D-02 -0.905938D-03  0.000000D+00  0.000000D+00  0.707084D-04
     28  0.000000D+00  0.000000D+00  0.000000D+00  0.000000D+00  0.000000D+00
     29  0.000000D+00  0.000000D+00 -0.418519D-02  0.000000D+00  0.000000D+00
     30  0.000000D+00  0.000000D+00  0.000000D+00 -0.418519D-02  0.000000D+00
     31 -0.407248D-02  0.283749D-01  0.000000D+00  0.000000D+00  0.194572D-01
     32  0.136909D-01 -0.651636D-01  0.000000D+00  0.000000D+00 -0.494443D-01
     33  0.000000D+00  0.000000D+00 -0.586121D-01  0.000000D+00  0.000000D+00
     34  0.000000D+00  0.000000D+00  0.000000D+00 -0.586121D-01  0.000000D+00
     35 -0.299711D-01  0.406399D-01  0.000000D+00  0.000000D+00  0.620708D-01
     36 -0.104520D-01 -0.254943D-01  0.000000D+00  0.000000D+00  0.802984D-02
     37  0.000000D+00  0.000000D+00 -0.684256D-01  0.000000D+00  0.000000D+00
     38  0.000000D+00  0.000000D+00  0.000000D+00 -0.684256D-01  0.000000D+00
     39 -0.156168D-01  0.108831D-01  0.000000D+00  0.000000D+00  0.230395D-01
     40  0.326989D-03  0.974179D-03  0.000000D+00  0.000000D+00  0.765747D-03
     41  0.326989D-03  0.974179D-03  0.000000D+00  0.000000D+00  0.765747D-03
     42  0.276159D-02 -0.496428D-02  0.000000D+00  0.000000D+00 -0.656382D-02
     43  0.000000D+00  0.000000D+00  0.000000D+00  0.000000D+00  0.000000D+00
     44  0.000000D+00  0.000000D+00 -0.131846D-02  0.000000D+00  0.000000D+00
     45  0.000000D+00  0.000000D+00  0.000000D+00 -0.131846D-02  0.000000D+00
                6             7             8             9            10
      6  0.656521D-02
      7  0.000000D+00  0.318258D-01
      8  0.000000D+00  0.000000D+00  0.318258D-01
      9  0.360145D-03  0.000000D+00  0.000000D+00  0.553262D-02
     10 -0.655701D-03  0.000000D+00  0.000000D+00  0.205781D-02  0.964631D-03
     11 -0.655701D-03  0.000000D+00  0.000000D+00  0.205781D-02  0.964631D-03
     12  0.244903D-02  0.000000D+00  0.000000D+00 -0.204734D-02 -0.969458D-03
     13  0.000000D+00  0.000000D+00  0.000000D+00  0.000000D+00  0.000000D+00
     14  0.000000D+00  0.588459D-02  0.000000D+00  0.000000D+00  0.000000D+00
     15  0.000000D+00  0.000000D+00  0.588459D-02  0.000000D+00  0.000000D+00
     16 -0.394459D-02  0.000000D+00  0.000000D+00  0.149323D-01  0.386386D-02
     17  0.333998D-02  0.000000D+00  0.000000D+00 -0.301335D-01 -0.962824D-02
     18  0.000000D+00  0.513669D-01  0.000000D+00  0.000000D+00  0.000000D+00
     19  0.000000D+00  0.000000D+00  0.513669D-01  0.000000D+00  0.000000D+00
     20 -0.375971D-01  0.000000D+00  0.000000D+00  0.226217D-01  0.144371D-01
     21  0.164767D-01  0.000000D+00  0.000000D+00 -0.338116D-01 -0.135995D-01
     22  0.000000D+00  0.579759D-01  0.000000D+00  0.000000D+00  0.000000D+00
     23  0.000000D+00  0.000000D+00  0.579759D-01  0.000000D+00  0.000000D+00
     24 -0.177085D-01  0.000000D+00  0.000000D+00  0.175292D-01  0.828595D-02
     25  0.753240D-03  0.000000D+00  0.000000D+00  0.466214D-04 -0.192134D-03
     26  0.753240D-03  0.000000D+00  0.000000D+00  0.466214D-04 -0.192134D-03
     27  0.340291D-03  0.000000D+00  0.000000D+00 -0.107201D-03  0.985273D-04
     28  0.000000D+00  0.000000D+00  0.000000D+00  0.000000D+00  0.000000D+00
     29  0.000000D+00 -0.188836D-02  0.000000D+00  0.000000D+00  0.000000D+00
     30  0.000000D+00  0.000000D+00 -0.188836D-02  0.000000D+00  0.000000D+00
     31 -0.116212D-01  0.000000D+00  0.000000D+00 -0.120245D-01 -0.398196D-02
     32  0.221413D-01  0.000000D+00  0.000000D+00  0.269277D-01  0.903249D-02
     33  0.000000D+00 -0.275758D-01  0.000000D+00  0.000000D+00  0.000000D+00
     34  0.000000D+00  0.000000D+00 -0.275758D-01  0.000000D+00  0.000000D+00
     35  0.514831D-01  0.000000D+00  0.000000D+00  0.202747D-01 -0.758752D-03
     36  0.517406D-01  0.000000D+00  0.000000D+00  0.304159D-01  0.631817D-02
     37  0.000000D+00 -0.371399D-01  0.000000D+00  0.000000D+00  0.000000D+00
     38  0.000000D+00  0.000000D+00 -0.371399D-01  0.000000D+00  0.000000D+00
     39  0.285083D-01  0.000000D+00  0.000000D+00  0.142075D-01  0.914057D-03
     40  0.293913D-03  0.000000D+00  0.000000D+00  0.136726D-03 -0.661005D-04
     41  0.293913D-03  0.000000D+00  0.000000D+00  0.136726D-03 -0.661005D-04
     42 -0.374996D-02  0.000000D+00  0.000000D+00 -0.902825D-03  0.293831D-03
     43  0.000000D+00  0.000000D+00  0.000000D+00  0.000000D+00  0.000000D+00
     44  0.000000D+00 -0.174872D-02  0.000000D+00  0.000000D+00  0.000000D+00
     45  0.000000D+00  0.000000D+00 -0.174872D-02  0.000000D+00  0.000000D+00
               11            12            13            14            15
     11  0.964631D-03
     12 -0.969458D-03  0.188332D-02
     13  0.000000D+00  0.000000D+00  0.000000D+00
     14  0.000000D+00  0.000000D+00  0.000000D+00  0.108860D-02
     15  0.000000D+00  0.000000D+00  0.000000D+00  0.000000D+00  0.108860D-02
     16  0.386386D-02 -0.855710D-02  0.000000D+00  0.000000D+00  0.000000D+00
     17 -0.962824D-02  0.159314D-01  0.000000D+00  0.000000D+00  0.000000D+00
     18  0.000000D+00  0.000000D+00  0.000000D+00  0.977962D-02  0.000000D+00
     19  0.000000D+00  0.000000D+00  0.000000D+00  0.000000D+00  0.977962D-02
     20  0.144371D-01 -0.219951D-01  0.000000D+00  0.000000D+00  0.000000D+00
     21 -0.135995D-01  0.211988D-01  0.000000D+00  0.000000D+00  0.000000D+00
     22  0.000000D+00  0.000000D+00  0.000000D+00  0.108852D-01  0.000000D+00
     23  0.000000D+00  0.000000D+00  0.000000D+00  0.000000D+00  0.108852D-01
     24  0.828595D-02 -0.144332D-01  0.000000D+00  0.000000D+00  0.000000D+00
     25 -0.192134D-03  0.125643D-03  0.000000D+00  0.000000D+00  0.000000D+00
     26 -0.192134D-03  0.125643D-03  0.000000D+00  0.000000D+00  0.000000D+00
     27  0.985273D-04  0.398317D-03  0.000000D+00  0.000000D+00  0.000000D+00
     28  0.000000D+00  0.000000D+00  0.000000D+00  0.000000D+00  0.000000D+00
     29  0.000000D+00  0.000000D+00  0.000000D+00 -0.315482D-03  0.000000D+00
     30  0.000000D+00  0.000000D+00  0.000000D+00  0.000000D+00 -0.315482D-03
     31 -0.398196D-02 -0.817517D-03  0.000000D+00  0.000000D+00  0.000000D+00
     32  0.903249D-02  0.183229D-03  0.000000D+00  0.000000D+00  0.000000D+00
     33  0.000000D+00  0.000000D+00  0.000000D+00 -0.467068D-02  0.000000D+00
     34  0.000000D+00  0.000000D+00  0.000000D+00  0.000000D+00 -0.467068D-02
     35 -0.758752D-03  0.961158D-02  0.000000D+00  0.000000D+00  0.000000D+00
     36  0.631817D-02  0.991800D-02  0.000000D+00  0.000000D+00  0.000000D+00
     37  0.000000D+00  0.000000D+00  0.000000D+00 -0.655799D-02  0.000000D+00
     38  0.000000D+00  0.000000D+00  0.000000D+00  0.000000D+00 -0.655799D-02
     39  0.914057D-03  0.443240D-02  0.000000D+00  0.000000D+00  0.000000D+00
     40 -0.661005D-04 -0.442593D-04  0.000000D+00  0.000000D+00  0.000000D+00
     41 -0.661005D-04 -0.442593D-04  0.000000D+00  0.000000D+00  0.000000D+00
     42  0.293831D-03 -0.896446D-03  0.000000D+00  0.000000D+00  0.000000D+00
     43  0.000000D+00  0.000000D+00  0.000000D+00  0.000000D+00  0.000000D+00
     44  0.000000D+00  0.000000D+00  0.000000D+00 -0.357184D-03  0.000000D+00
     45  0.000000D+00  0.000000D+00  0.000000D+00  0.000000D+00 -0.357184D-03
               16            17            18            19            20
     16  0.207396D+01
     17 -0.116480D+00  0.318401D+00
     18  0.000000D+00  0.000000D+00  0.230631D+00
     19  0.000000D+00  0.000000D+00  0.000000D+00  0.230631D+00
     20  0.122378D-01 -0.111982D-01  0.000000D+00  0.000000D+00  0.475342D+00
     21 -0.146075D+00  0.246113D+00  0.000000D+00  0.000000D+00 -0.210550D+00
     22  0.000000D+00  0.000000D+00  0.180288D+00  0.000000D+00  0.000000D+00
     23  0.000000D+00  0.000000D+00  0.000000D+00  0.180288D+00  0.000000D+00
     24  0.726060D-01 -0.121088D+00  0.000000D+00  0.000000D+00  0.178455D+00
     25 -0.393195D-03 -0.953047D-02  0.000000D+00  0.000000D+00 -0.140283D-01
     26 -0.393195D-03 -0.953047D-02  0.000000D+00  0.000000D+00 -0.140283D-01
     27 -0.968072D-02  0.146055D-01  0.000000D+00  0.000000D+00  0.111579D-01
     28  0.000000D+00  0.000000D+00  0.000000D+00  0.000000D+00  0.000000D+00
     29  0.000000D+00  0.000000D+00  0.146016D-01  0.000000D+00  0.000000D+00
     30  0.000000D+00  0.000000D+00  0.000000D+00  0.146016D-01  0.000000D+00
     31  0.190808D-01 -0.323934D-01  0.000000D+00  0.000000D+00 -0.792245D-01
     32 -0.330621D-01  0.463965D-01  0.000000D+00  0.000000D+00  0.173369D+00
     33  0.000000D+00  0.000000D+00  0.179851D+00  0.000000D+00  0.000000D+00
     34  0.000000D+00  0.000000D+00  0.000000D+00  0.179851D+00  0.000000D+00
     35  0.109368D+00 -0.222145D+00  0.000000D+00  0.000000D+00 -0.364912D+00
     36 -0.260989D-01  0.179181D-01  0.000000D+00  0.000000D+00 -0.203848D-01
     37  0.000000D+00  0.000000D+00  0.102093D+00  0.000000D+00  0.000000D+00
     38  0.000000D+00  0.000000D+00  0.000000D+00  0.102093D+00  0.000000D+00
     39  0.581559D-01 -0.114903D+00  0.000000D+00  0.000000D+00 -0.163071D+00
     40  0.370508D-02 -0.765969D-02  0.000000D+00  0.000000D+00 -0.834109D-02
     41  0.370508D-02 -0.765969D-02  0.000000D+00  0.000000D+00 -0.834109D-02
     42 -0.774766D-02  0.159182D-01  0.000000D+00  0.000000D+00  0.322299D-01
     43  0.000000D+00  0.000000D+00  0.000000D+00  0.000000D+00  0.000000D+00
     44  0.000000D+00  0.000000D+00 -0.205595D-01  0.000000D+00  0.000000D+00
     45  0.000000D+00  0.000000D+00  0.000000D+00 -0.205595D-01  0.000000D+00
               21            22            23            24            25
     21  0.278815D+00
     22  0.000000D+00  0.156514D+00
     23  0.000000D+00  0.000000D+00  0.156514D+00
     24 -0.166863D+00  0.000000D+00  0.000000D+00  0.112352D+00
     25 -0.100994D-02  0.000000D+00  0.000000D+00 -0.146956D-02  0.749265D-03
     26 -0.100994D-02  0.000000D+00  0.000000D+00 -0.146956D-02  0.749265D-03
     27  0.581780D-02  0.000000D+00  0.000000D+00 -0.217299D-02 -0.870997D-03
     28  0.000000D+00  0.000000D+00  0.000000D+00  0.000000D+00  0.000000D+00
     29  0.000000D+00  0.692028D-02  0.000000D+00  0.000000D+00  0.000000D+00
     30  0.000000D+00  0.000000D+00  0.692028D-02  0.000000D+00  0.000000D+00
     31  0.232854D-01  0.000000D+00  0.000000D+00 -0.125121D-02  0.476331D-02
     32 -0.589785D-01  0.000000D+00  0.000000D+00  0.201428D-01 -0.944981D-02
     33  0.000000D+00  0.814648D-01  0.000000D+00  0.000000D+00  0.000000D+00
     34  0.000000D+00  0.000000D+00  0.814648D-01  0.000000D+00  0.000000D+00
     35 -0.287080D-01  0.000000D+00  0.000000D+00 -0.698604D-01  0.159292D-01
     36 -0.687650D-02  0.000000D+00  0.000000D+00 -0.513307D-01 -0.385898D-02
     37  0.000000D+00  0.274598D-01  0.000000D+00  0.000000D+00  0.000000D+00
     38  0.000000D+00  0.000000D+00  0.274598D-01  0.000000D+00  0.000000D+00
     39 -0.281357D-01  0.000000D+00  0.000000D+00 -0.295609D-01  0.715363D-02
     40 -0.211818D-02  0.000000D+00  0.000000D+00 -0.189674D-04  0.511727D-03
     41 -0.211818D-02  0.000000D+00  0.000000D+00 -0.189674D-04  0.511727D-03
     42 -0.788017D-03  0.000000D+00  0.000000D+00  0.692243D-02 -0.135826D-02
     43  0.000000D+00  0.000000D+00  0.000000D+00  0.000000D+00  0.000000D+00
     44  0.000000D+00 -0.135973D-01  0.000000D+00  0.000000D+00  0.000000D+00
     45  0.000000D+00  0.000000D+00 -0.135973D-01  0.000000D+00  0.000000D+00
               26            27            28            29            30
     26  0.749265D-03
     27 -0.870997D-03  0.131171D-02
     28  0.000000D+00  0.000000D+00  0.000000D+00
     29  0.000000D+00  0.000000D+00  0.000000D+00  0.222071D-02
     30  0.000000D+00  0.000000D+00  0.000000D+00  0.000000D+00  0.222071D-02
     31  0.476331D-02 -0.102862D-01  0.000000D+00  0.000000D+00  0.000000D+00
     32 -0.944981D-02  0.173507D-01  0.000000D+00  0.000000D+00  0.000000D+00
     33  0.000000D+00  0.000000D+00  0.000000D+00  0.284415D-01  0.000000D+00
     34  0.000000D+00  0.000000D+00  0.000000D+00  0.000000D+00  0.284415D-01
     35  0.159292D-01 -0.119025D-01  0.000000D+00  0.000000D+00  0.000000D+00
     36 -0.385898D-02  0.157775D-01  0.000000D+00  0.000000D+00  0.000000D+00
     37  0.000000D+00  0.000000D+00  0.000000D+00  0.215631D-01  0.000000D+00
     38  0.000000D+00  0.000000D+00  0.000000D+00  0.000000D+00  0.215631D-01
     39  0.715363D-02 -0.433285D-02  0.000000D+00  0.000000D+00  0.000000D+00
     40  0.511727D-03 -0.653687D-03  0.000000D+00  0.000000D+00  0.000000D+00
     41  0.511727D-03 -0.653687D-03  0.000000D+00  0.000000D+00  0.000000D+00
     42 -0.135826D-02  0.113407D-02  0.000000D+00  0.000000D+00  0.000000D+00
     43  0.000000D+00  0.000000D+00  0.000000D+00  0.000000D+00  0.000000D+00
     44  0.000000D+00  0.000000D+00  0.000000D+00 -0.201538D-02  0.000000D+00
     45  0.000000D+00  0.000000D+00  0.000000D+00  0.000000D+00 -0.201538D-02
               31            32            33            34            35
     31  0.207995D+01
     32 -0.156322D+00  0.425261D+00
     33  0.000000D+00  0.000000D+00  0.364640D+00
     34  0.000000D+00  0.000000D+00  0.000000D+00  0.364640D+00
     35 -0.376557D-01  0.728947D-01  0.000000D+00  0.000000D+00  0.615641D+00
     36 -0.244661D+00  0.492290D+00  0.000000D+00  0.000000D+00  0.345198D+00
     37  0.000000D+00  0.000000D+00  0.278277D+00  0.000000D+00  0.000000D+00
     38  0.000000D+00  0.000000D+00  0.000000D+00  0.278277D+00  0.000000D+00
     39 -0.378787D-01  0.861952D-01  0.000000D+00  0.000000D+00  0.325125D+00
     40 -0.329134D-02 -0.751723D-02  0.000000D+00  0.000000D+00  0.100397D-01
     41 -0.329134D-02 -0.751723D-02  0.000000D+00  0.000000D+00  0.100397D-01
     42 -0.472135D-02  0.107277D-02  0.000000D+00  0.000000D+00 -0.460048D-01
     43  0.000000D+00  0.000000D+00  0.000000D+00  0.000000D+00  0.000000D+00
     44  0.000000D+00  0.000000D+00 -0.254232D-01  0.000000D+00  0.000000D+00
     45  0.000000D+00  0.000000D+00  0.000000D+00 -0.254232D-01  0.000000D+00
               36            37            38            39            40
     36  0.702268D+00
     37  0.000000D+00  0.221079D+00
     38  0.000000D+00  0.000000D+00  0.221079D+00
     39  0.232295D+00  0.000000D+00  0.000000D+00  0.177331D+00
     40 -0.435434D-02  0.000000D+00  0.000000D+00  0.437437D-02  0.392061D-03
     41 -0.435434D-02  0.000000D+00  0.000000D+00  0.437437D-02  0.392061D-03
     42 -0.191110D-01  0.000000D+00  0.000000D+00 -0.234967D-01 -0.850206D-03
     43  0.000000D+00  0.000000D+00  0.000000D+00  0.000000D+00  0.000000D+00
     44  0.000000D+00 -0.174149D-01  0.000000D+00  0.000000D+00  0.000000D+00
     45  0.000000D+00  0.000000D+00 -0.174149D-01  0.000000D+00  0.000000D+00
               41            42            43            44            45
     41  0.392061D-03
     42 -0.850206D-03  0.356872D-02
     43  0.000000D+00  0.000000D+00  0.000000D+00
     44  0.000000D+00  0.000000D+00  0.000000D+00  0.222576D-02
     45  0.000000D+00  0.000000D+00  0.000000D+00  0.000000D+00  0.222576D-02

 Excited state symmetry could not be determined.
 Excited State   2:      Singlet-?Sym    6.5792 eV  188.45 nm  f=0.0153  <S**2>=0.000
       7 ->  9         0.20547
       8 ->  9         0.64986
       8 -> 12         0.15756

 Excited state symmetry could not be determined.
 Excited State   3:      Singlet-?Sym    6.5792 eV  188.45 nm  f=0.0153  <S**2>=0.000
       7 ->  9         0.64986
       7 -> 12         0.15756
       8 ->  9        -0.20547

 Excited state symmetry could not be determined.
 Excited State   4:      Singlet-?Sym    6.7446 eV  183.83 nm  f=0.0000  <S**2>=0.000
       7 -> 10         0.16967
       7 -> 11        -0.34106
       7 -> 15        -0.19302
       7 -> 16         0.10585
       7 -> 17        -0.21278
       8 -> 10        -0.34106
       8 -> 11        -0.16967
       8 -> 14        -0.19302
       8 -> 16        -0.21278
       8 -> 17        -0.10585

 Excited state symmetry could not be determined.
 Excited State   5:      Singlet-?Sym    6.7446 eV  183.83 nm  f=0.0000  <S**2>=0.000
       7 -> 10         0.34106
       7 -> 11         0.16967
       7 -> 14         0.19302
       7 -> 16         0.21278
       7 -> 17         0.10585
       8 -> 10         0.16967
       8 -> 11        -0.34106
       8 -> 15        -0.19302
       8 -> 16         0.10585
       8 -> 17        -0.21278

 Excited State   6:      Singlet-SG     7.1557 eV  173.27 nm  f=0.0374  <S**2>=0.000
       5 ->  9        -0.15592
       6 ->  9         0.66932
       6 -> 12         0.11647

 Excited state symmetry could not be determined.
 Excited State   7:      Singlet-?Sym    7.8690 eV  157.56 nm  f=0.0637  <S**2>=0.000
       6 -> 10         0.50690
       6 -> 11         0.30254
       6 -> 14         0.24711
       6 -> 15         0.14749
       6 -> 16         0.19179
       6 -> 17         0.11447

 Excited state symmetry could not be determined.
 Excited State   8:      Singlet-?Sym    7.8690 eV  157.56 nm  f=0.0637  <S**2>=0.000
       6 -> 10         0.30254
       6 -> 11        -0.50690
       6 -> 14         0.14749
       6 -> 15        -0.24711
       6 -> 16         0.11447
       6 -> 17        -0.19179

 Excited state symmetry could not be determined.
 Excited State   9:      Singlet-?Sym    8.2386 eV  150.49 nm  f=0.1853  <S**2>=0.000
       7 -> 10         0.49318
       8 -> 11         0.49318

 Excited state symmetry could not be determined.
 Excited State  10:      Singlet-?Sym    8.9855 eV  137.98 nm  f=0.0000  <S**2>=0.000
       7 -> 11        -0.35402
       7 -> 15         0.19553
       7 -> 17         0.28448
       8 -> 10         0.35402
       8 -> 14        -0.19553
       8 -> 16        -0.28448

 Excited state symmetry could not be determined.
 Excited State  11:      Singlet-?Sym    9.0434 eV  137.10 nm  f=0.0652  <S**2>=0.000
       7 -> 12        -0.35559
       7 -> 13         0.11126
       8 ->  9        -0.12531
       8 -> 12         0.55126
       8 -> 13        -0.17248

 Excited state symmetry could not be determined.
 Excited State  12:      Singlet-?Sym    9.0434 eV  137.10 nm  f=0.0652  <S**2>=0.000
       7 ->  9        -0.12531
       7 -> 12         0.55126
       7 -> 13        -0.17248
       8 -> 12         0.35559
       8 -> 13        -0.11126

 Excited state symmetry could not be determined.
 Excited State  13:      Singlet-?Sym    9.1280 eV  135.83 nm  f=0.0000  <S**2>=0.000
       7 -> 10         0.31051
       7 -> 14        -0.21948
       7 -> 16        -0.28793
       8 -> 11        -0.31051
       8 -> 15         0.21948
       8 -> 17         0.28793

 Excited state symmetry could not be determined.
 Excited State  14:      Singlet-?Sym    9.1280 eV  135.83 nm  f=0.0000  <S**2>=0.000
       7 -> 11         0.31051
       7 -> 15        -0.21948
       7 -> 17        -0.28793
       8 -> 10         0.31051
       8 -> 14        -0.21948
       8 -> 16        -0.28793

 Excited state symmetry could not be determined.
 Excited State  15:      Singlet-?Sym   10.0453 eV  123.43 nm  f=0.0334  <S**2>=0.000
       5 -> 10        -0.22165
       5 -> 11        -0.12732
       6 -> 10         0.27208
       6 -> 11         0.15629
       6 -> 14        -0.25302
       6 -> 15        -0.14534
       6 -> 16        -0.40381
       6 -> 17        -0.23196

 Excited state symmetry could not be determined.
 Excited State  16:      Singlet-?Sym   10.0453 eV  123.43 nm  f=0.0334  <S**2>=0.000
       5 -> 10         0.12732
       5 -> 11        -0.22165
       6 -> 10        -0.15629
       6 -> 11         0.27208
       6 -> 14         0.14534
       6 -> 15        -0.25302
       6 -> 16         0.23196
       6 -> 17        -0.40381

 Excited State  17:      Singlet-SG    10.4094 eV  119.11 nm  f=0.0414  <S**2>=0.000
       6 -> 12         0.66722
       6 -> 13        -0.18965

 Excited State  18:      Singlet-SG    10.6756 eV  116.14 nm  f=0.0421  <S**2>=0.000
       5 ->  9         0.62997
       5 -> 12         0.16139
       6 ->  9         0.17908
       7 -> 14        -0.11169
       8 -> 15        -0.11169

 Excited state symmetry could not be determined.
 Excited State  19:      Singlet-?Sym   11.3660 eV  109.08 nm  f=0.0616  <S**2>=0.000
       5 -> 10         0.48228
       5 -> 14         0.23843
       5 -> 16         0.10593
       6 -> 10         0.20313
       6 -> 14        -0.33885
       7 -> 13        -0.15939

 Excited state symmetry could not be determined.
 Excited State  20:      Singlet-?Sym   11.3660 eV  109.08 nm  f=0.0616  <S**2>=0.000
       5 -> 11         0.48228
       5 -> 15         0.23843
       5 -> 17         0.10593
       6 -> 11         0.20313
       6 -> 15        -0.33885
       8 -> 13        -0.15939

 The electronic state is 1-SG.
 Alpha  occ. eigenvalues --  -15.49155 -11.15767  -2.49836  -1.13095  -0.54283
 Alpha  occ. eigenvalues --   -0.43010  -0.39078  -0.39078
 Alpha virt. eigenvalues --   -0.01406   0.04863   0.04863   0.12184   0.17415
 Alpha virt. eigenvalues --    0.18388   0.18388   0.31782   0.31782   0.34182
 Alpha virt. eigenvalues --    0.54169   0.54169   0.65890   0.65890   0.68815

 Mulliken atomic charges:
              1
     1  Li   0.111546
     2  C    0.074003
     3  N   -0.185550
 Sum of Mulliken atomic charges =   0.00000

 Dipole moment (field-independent basis, Debye):
    X=              0.0000    Y=              0.0000    Z=             -4.0259  Tot=              4.0259
 Quadrupole moment (field-independent basis, Debye-Ang):
   XX=            -17.8848   YY=            -17.8848   ZZ=             -6.8624
   XY=              0.0000   XZ=              0.0000   YZ=              0.0000

 Normal termination of Gaussian 09 at Sat Jul 23 16:01:19 2016.
