 Gaussian 09, Revision A.02,
 Gaussian 09:  AM64L-G09RevA.02 11-Jun-2009

 ----------------------------------------------------------------------
 #p cis=(root=1,nstates=10,alltransitiondensities)/6-31G density=rhoci
 iop(9/33=1) scrf=(iefpcm,read)
 ----------------------------------------------------------------------

 -------------
 LiCN 6-31G(d)
 -------------
 Symbolic Z-matrix:
 Charge =  0 Multiplicity = 1

                         Standard orientation:
 ---------------------------------------------------------------------
 Center     Atomic      Atomic             Coordinates (Angstroms)
 Number     Number       Type             X           Y           Z
 ---------------------------------------------------------------------
      1          3           0        0.000000    0.000000   -2.085506
      2          6           0        0.000000    0.000000   -0.136506
      3          7           0        0.000000    0.000000    1.010794
 ---------------------------------------------------------------------

 SCF Done:  E(RHF) =  -99.7318257823     A.U. after   10 cycles

 Excitation energies and oscillator strengths:

 Excited state symmetry could not be determined.
 Excited State   1:      Singlet-?Sym    6.6767 eV  185.70 nm  f=0.0000  <S**2>=0.000
       7 -> 11        -0.32561
       7 -> 13        -0.24941
       7 -> 16         0.28260
       8 -> 10         0.32561
       8 -> 14         0.24941
       8 -> 17        -0.28260
 This state for optimization and/or second-order correction.
 Total Energy, E(CIS) =  -99.4864605753
 Copying the excited state density for this state as the 1-particle RhoCI density.
    CIS Density (Total):
                1             2             3             4             5
      1  0.201988D+01
      2 -0.245754D-05  0.276527D-01
      3  0.000000D+00  0.000000D+00  0.586587D-01
      4  0.000000D+00  0.000000D+00  0.000000D+00  0.586587D-01
      5 -0.573244D-01  0.357670D-01  0.000000D+00  0.000000D+00  0.484512D-01
      6 -0.247082D-01  0.952715D-02  0.000000D+00  0.000000D+00  0.141018D-01
      7  0.000000D+00  0.000000D+00  0.349988D-01  0.000000D+00  0.000000D+00
      8  0.000000D+00  0.000000D+00  0.000000D+00  0.349988D-01  0.000000D+00
      9  0.177278D-01 -0.587432D-02  0.000000D+00  0.000000D+00 -0.763213D-02
     10  0.325131D-01 -0.221085D-01  0.000000D+00  0.000000D+00 -0.339413D-01
     11 -0.551708D-01  0.397828D-01  0.000000D+00  0.000000D+00  0.609698D-01
     12  0.000000D+00  0.000000D+00  0.646960D-01  0.000000D+00  0.000000D+00
     13  0.000000D+00  0.000000D+00  0.000000D+00  0.646960D-01  0.000000D+00
     14  0.827736D-01 -0.102747D+00  0.000000D+00  0.000000D+00 -0.132541D+00
     15 -0.971027D-01  0.946604D-01  0.000000D+00  0.000000D+00  0.129315D+00
     16  0.000000D+00  0.000000D+00  0.843973D-01  0.000000D+00  0.000000D+00
     17  0.000000D+00  0.000000D+00  0.000000D+00  0.843973D-01  0.000000D+00
     18  0.484028D-01 -0.537795D-01  0.000000D+00  0.000000D+00 -0.745524D-01
     19 -0.311707D-02  0.225306D-01  0.000000D+00  0.000000D+00  0.202933D-01
     20  0.154510D-01 -0.474695D-01  0.000000D+00  0.000000D+00 -0.482668D-01
     21  0.000000D+00  0.000000D+00 -0.589261D-01  0.000000D+00  0.000000D+00
     22  0.000000D+00  0.000000D+00  0.000000D+00 -0.589261D-01  0.000000D+00
     23 -0.317147D-01  0.405030D-01  0.000000D+00  0.000000D+00  0.526135D-01
     24 -0.907397D-02 -0.167165D-01  0.000000D+00  0.000000D+00 -0.535041D-02
     25  0.000000D+00  0.000000D+00 -0.707919D-01  0.000000D+00  0.000000D+00
     26  0.000000D+00  0.000000D+00  0.000000D+00 -0.707919D-01  0.000000D+00
     27 -0.147385D-01  0.118764D-01  0.000000D+00  0.000000D+00  0.171389D-01
                6             7             8             9            10
      6  0.839301D-02
      7  0.000000D+00  0.214090D-01
      8  0.000000D+00  0.000000D+00  0.214090D-01
      9  0.112891D-02  0.000000D+00  0.000000D+00  0.402084D-02
     10 -0.651057D-02  0.000000D+00  0.000000D+00  0.109317D-01  0.207540D+01
     11  0.812002D-02  0.000000D+00  0.000000D+00 -0.216609D-01 -0.127377D+00
     12  0.000000D+00  0.483605D-01  0.000000D+00  0.000000D+00  0.000000D+00
     13  0.000000D+00  0.000000D+00  0.483605D-01  0.000000D+00  0.000000D+00
     14 -0.485642D-01  0.000000D+00  0.000000D+00  0.919312D-02  0.144105D-01
     15  0.318548D-01  0.000000D+00  0.000000D+00 -0.264040D-01 -0.169319D+00
     16  0.000000D+00  0.564809D-01  0.000000D+00  0.000000D+00  0.000000D+00
     17  0.000000D+00  0.000000D+00  0.564809D-01  0.000000D+00  0.000000D+00
     18 -0.251326D-01  0.000000D+00  0.000000D+00  0.966666D-02  0.805913D-01
     19 -0.117330D-01  0.000000D+00  0.000000D+00 -0.143832D-01  0.178206D-01
     20  0.182134D-01  0.000000D+00  0.000000D+00  0.294166D-01 -0.355426D-01
     21  0.000000D+00 -0.220940D-01  0.000000D+00  0.000000D+00  0.000000D+00
     22  0.000000D+00  0.000000D+00 -0.220940D-01  0.000000D+00  0.000000D+00
     23  0.522665D-01  0.000000D+00  0.000000D+00  0.258870D-01  0.105696D+00
     24  0.523991D-01  0.000000D+00  0.000000D+00  0.414673D-01 -0.159101D-01
     25  0.000000D+00 -0.330862D-01  0.000000D+00  0.000000D+00  0.000000D+00
     26  0.000000D+00  0.000000D+00 -0.330862D-01  0.000000D+00  0.000000D+00
     27  0.258897D-01  0.000000D+00  0.000000D+00  0.156111D-01  0.467044D-01
               11            12            13            14            15
     11  0.341834D+00
     12  0.000000D+00  0.252119D+00
     13  0.000000D+00  0.000000D+00  0.252119D+00
     14  0.252679D-01  0.000000D+00  0.000000D+00  0.508527D+00
     15  0.274653D+00  0.000000D+00  0.000000D+00 -0.273124D+00  0.395293D+00
     16  0.000000D+00  0.206533D+00  0.000000D+00  0.000000D+00  0.000000D+00
     17  0.000000D+00  0.000000D+00  0.206533D+00  0.000000D+00  0.000000D+00
     18 -0.136906D+00  0.000000D+00  0.000000D+00  0.178655D+00 -0.216265D+00
     19 -0.317615D-01  0.000000D+00  0.000000D+00 -0.784028D-01  0.566020D-01
     20  0.570192D-01  0.000000D+00  0.000000D+00  0.188844D+00 -0.932144D-01
     21  0.000000D+00  0.176983D+00  0.000000D+00  0.000000D+00  0.000000D+00
     22  0.000000D+00  0.000000D+00  0.176983D+00  0.000000D+00  0.000000D+00
     23 -0.259145D+00  0.000000D+00  0.000000D+00 -0.403856D+00 -0.634588D-02
     24 -0.115531D-01  0.000000D+00  0.000000D+00 -0.339101D-01 -0.373055D-01
     25  0.000000D+00  0.914290D-01  0.000000D+00  0.000000D+00  0.000000D+00
     26  0.000000D+00  0.000000D+00  0.914290D-01  0.000000D+00  0.000000D+00
     27 -0.112355D+00  0.000000D+00  0.000000D+00 -0.158374D+00 -0.168814D-01
               16            17            18            19            20
     16  0.192631D+00
     17  0.000000D+00  0.192631D+00
     18  0.000000D+00  0.000000D+00  0.129383D+00
     19  0.000000D+00  0.000000D+00  0.174001D-01  0.208285D+01
     20  0.000000D+00  0.000000D+00  0.852553D-02 -0.160780D+00  0.442425D+00
     21  0.670821D-01  0.000000D+00  0.000000D+00  0.000000D+00  0.000000D+00
     22  0.000000D+00  0.670821D-01  0.000000D+00  0.000000D+00  0.000000D+00
     23  0.000000D+00  0.000000D+00 -0.620533D-01 -0.315724D-01  0.367033D-01
     24  0.000000D+00  0.000000D+00 -0.615345D-01 -0.279306D+00  0.503033D+00
     25  0.452922D-02  0.000000D+00  0.000000D+00  0.000000D+00  0.000000D+00
     26  0.000000D+00  0.452922D-02  0.000000D+00  0.000000D+00  0.000000D+00
     27  0.000000D+00  0.000000D+00 -0.257706D-01 -0.247273D-01  0.730828D-01
               21            22            23            24            25
     21  0.383103D+00
     22  0.000000D+00  0.383103D+00
     23  0.000000D+00  0.000000D+00  0.622567D+00
     24  0.000000D+00  0.000000D+00  0.347263D+00  0.739114D+00
     25  0.298018D+00  0.000000D+00  0.000000D+00  0.000000D+00  0.244385D+00
     26  0.000000D+00  0.298018D+00  0.000000D+00  0.000000D+00  0.000000D+00
     27  0.000000D+00  0.000000D+00  0.287876D+00  0.221224D+00  0.000000D+00
               26            27
     26  0.244385D+00
     27  0.000000D+00  0.140336D+00

 Excited state symmetry could not be determined.
 Excited State   2:      Singlet-?Sym    6.9984 eV  177.16 nm  f=0.0000  <S**2>=0.000
       7 -> 11         0.36059
       7 -> 13         0.23827
       7 -> 16        -0.24895
       8 -> 10         0.36059
       8 -> 14         0.23827
       8 -> 17        -0.24895

 Excited state symmetry could not be determined.
 Excited State   3:      Singlet-?Sym    6.9984 eV  177.16 nm  f=0.0000  <S**2>=0.000
       7 -> 10        -0.36059
       7 -> 14        -0.23827
       7 -> 17         0.24895
       8 -> 11         0.36059
       8 -> 13         0.23827
       8 -> 16        -0.24895

 Excited state symmetry could not be determined.
 Excited State   4:      Singlet-?Sym    7.1186 eV  174.17 nm  f=0.0214  <S**2>=0.000
       8 ->  9         0.67129
       8 -> 12         0.17962

 Excited state symmetry could not be determined.
 Excited State   5:      Singlet-?Sym    7.1186 eV  174.17 nm  f=0.0214  <S**2>=0.000
       7 ->  9         0.67129
       7 -> 12         0.17962

 Excited State   6:      Singlet-SG     7.5082 eV  165.13 nm  f=0.0467  <S**2>=0.000
       5 ->  9         0.16203
       6 ->  9         0.66811
       6 -> 12         0.11524

 Excited state symmetry could not be determined.
 Excited State   7:      Singlet-?Sym    7.9716 eV  155.53 nm  f=0.0490  <S**2>=0.000
       6 -> 10        -0.33094
       6 -> 11         0.45372
       6 -> 13         0.25420
       6 -> 14        -0.18541
       6 -> 16        -0.19797
       6 -> 17         0.14440

 Excited state symmetry could not be determined.
 Excited State   8:      Singlet-?Sym    7.9716 eV  155.53 nm  f=0.0490  <S**2>=0.000
       6 -> 10         0.45372
       6 -> 11         0.33094
       6 -> 13         0.18541
       6 -> 14         0.25420
       6 -> 16        -0.14440
       6 -> 17        -0.19797

 Excited state symmetry could not be determined.
 Excited State   9:      Singlet-?Sym    8.6141 eV  143.93 nm  f=0.1891  <S**2>=0.000
       7 -> 10         0.49317
       8 -> 11         0.49317

 Excited state symmetry could not be determined.
 Excited State  10:      Singlet-?Sym    9.2695 eV  133.75 nm  f=0.0000  <S**2>=0.000
       7 -> 11        -0.37769
       7 -> 13         0.18504
       7 -> 16        -0.26597
       8 -> 10         0.37769
       8 -> 14        -0.18504
       8 -> 17         0.26597

 The electronic state is 1-SG.
 Alpha  occ. eigenvalues --  -15.50823 -11.17434  -2.49196  -1.16543  -0.54055
 Alpha  occ. eigenvalues --   -0.43115  -0.39927  -0.39927
 Alpha virt. eigenvalues --    0.00029   0.05543   0.05543   0.12702   0.18883
 Alpha virt. eigenvalues --    0.18883   0.19051   0.32634   0.32634   0.37466
 Alpha virt. eigenvalues --    0.70158   0.88329   0.88329   0.92757   1.14694

 Mulliken atomic charges:
              1
     1  Li   0.317872
     2  C   -0.101376
     3  N   -0.216495
 Sum of Mulliken atomic charges =   0.00000

 Dipole moment (field-independent basis, Debye):
    X=              0.0000    Y=              0.0000    Z=             -5.1769  Tot=              5.1769
 Quadrupole moment (field-independent basis, Debye-Ang):
   XX=            -17.0098   YY=            -17.0098   ZZ=             -5.8952
   XY=              0.0000   XZ=              0.0000   YZ=              0.0000

 Normal termination of Gaussian 09 at Fri May  6 18:44:51 2016.
